ATOMS
        Ar   28.345892    9.070685    9.070685
